Li    ONCVPSP-3.2.3  r_core=   1.40824   1.10935
      3.0000      3.0000      161029    zatom,zion,pspd
     8       2   1     4  1000     0    pspcod,pspxc,lmax,lloc,mmax,r2well
  9.99000000  0.00000000  0.00000000    rchrg fchrg qchrg
     2     2     0     0     0    nproj
     1     1           extension_switch
   0                        -6.0914511354797D+00 -2.4579380382658D+00
     1  0.0000000000000D+00 -1.0124071581075D-09  8.6792500963995D-10
     2  1.0000000000000D-02  1.2949966097499D-01 -5.0345003959597D-02
     3  2.0000000000000D-02  2.5838398824223D-01 -1.0013827368353D-01
     4  3.0000000000000D-02  3.8604156065458D-01 -1.4883232680487D-01
     5  4.0000000000000D-02  5.1186875229531D-01 -1.9588815301589D-01
     6  5.0000000000000D-02  6.3527355562524D-01 -2.4077937112189D-01
     7  6.0000000000000D-02  7.5567931599179D-01 -2.8299629193855D-01
     8  7.0000000000000D-02  8.7252834915193D-01 -3.2204985666809D-01
     9  8.0000000000000D-02  9.8528541447379D-01 -3.5747542125741D-01
    10  9.0000000000000D-02  1.0934410177288D+00 -3.8883635831759D-01
    11  1.0000000000000D-01  1.1965145188573D+00 -4.1572744946305D-01
    12  1.1000000000000D-01  1.2940570217690D+00 -4.3777804240281D-01
    13  1.2000000000000D-01  1.3856540251150D+00 -4.5465494877812D-01
    14  1.3000000000000D-01  1.4709278150139D+00 -4.6606506058042D-01
    15  1.4000000000000D-01  1.5495395829231D+00 -4.7175766499088D-01
    16  1.5000000000000D-01  1.6211912541832D+00 -4.7152643964606D-01
    17  1.6000000000000D-01  1.6856270152219D+00 -4.6521111264053D-01
    18  1.7000000000000D-01  1.7426345299460D+00 -4.5269877401282D-01
    19  1.8000000000000D-01  1.7920458384641D+00 -4.3392482801036D-01
    20  1.9000000000000D-01  1.8337379339388D+00 -4.0887357807704D-01
    21  2.0000000000000D-01  1.8676330160373D+00 -3.7757843923491D-01
    22  2.1000000000000D-01  1.8936984221230D+00 -3.4012177532295D-01
    23  2.2000000000000D-01  1.9119462399613D+00 -2.9663436139058D-01
    24  2.3000000000000D-01  1.9224326083013D+00 -2.4729447440225D-01
    25  2.4000000000000D-01  1.9252567141974D+00 -1.9232661827225D-01
    26  2.5000000000000D-01  1.9205594983410D+00 -1.3199989209292D-01
    27  2.6000000000000D-01  1.9085220819571D+00 -6.6626013225750D-02
    28  2.7000000000000D-01  1.8893639309645D+00  3.4429903306269D-03
    29  2.8000000000000D-01  1.8633407750819D+00  7.7817401219919D-02
    30  2.9000000000000D-01  1.8307423013705D+00  1.5607272802214D-01
    31  3.0000000000000D-01  1.7918896433205D+00  2.3775289249910D-01
    32  3.1000000000000D-01  1.7471326880046D+00  3.2237366444624D-01
    33  3.2000000000000D-01  1.6968472250167D+00  4.0942631769227D-01
    34  3.3000000000000D-01  1.6414319618930D+00  4.9838147886403D-01
    35  3.4000000000000D-01  1.5813054314569D+00  5.8869313881757D-01
    36  3.5000000000000D-01  1.5169028170413D+00  6.7980279514626D-01
    37  3.6000000000000D-01  1.4486727218188D+00  7.7114369292867D-01
    38  3.7000000000000D-01  1.3770739085099D+00  8.6214512988816D-01
    39  3.8000000000000D-01  1.3025720355509D+00  9.5223679141520D-01
    40  3.9000000000000D-01  1.2256364153793D+00  1.0408530804639D+00
    41  4.0000000000000D-01  1.1467368198592D+00  1.1274374071841D+00
    42  4.1000000000000D-01  1.0663403570165D+00  1.2114464032972D+00
    43  4.2000000000000D-01  9.8490844219940D-01  1.2923540266688D+00
    44  4.3000000000000D-01  9.0289388554580D-01  1.3696555222813D+00
    45  4.4000000000000D-01  8.2073811622091D-01  1.4428712068544D+00
    46  4.5000000000000D-01  7.3886856232318D-01  1.5115500457047D+00
    47  4.6000000000000D-01  6.5769620364436D-01  1.5752729920680D+00
    48  4.7000000000000D-01  5.7761331263973D-01  1.6336560610134D+00
    49  4.8000000000000D-01  4.9899139703014D-01  1.6863531122554D+00
    50  4.9000000000000D-01  4.2217935544195D-01  1.7330583185885D+00
    51  5.0000000000000D-01  3.4750185541328D-01  1.7735082993249D+00
    52  5.1000000000000D-01  2.7525794097540D-01  1.8074839009748D+00
    53  5.2000000000000D-01  2.0571987487877D-01  1.8348116104576D+00
    54  5.3000000000000D-01  1.3913221839400D-01  1.8553645893351D+00
    55  5.4000000000000D-01  7.5711149499357D-02  1.8690633208951D+00
    56  5.5000000000000D-01  1.5644018185910D-02  1.8758758653513D+00
    57  5.6000000000000D-01 -4.0910864405239D-02  1.8758177219253D+00
    58  5.7000000000000D-01 -9.3824208245906D-02  1.8689513001234D+00
    59  5.8000000000000D-01 -1.4299550516142D-01  1.8553850060552D+00
    60  5.9000000000000D-01 -1.8835257686890D-01  1.8352719531558D+00
    61  6.0000000000000D-01 -2.2985092074563D-01  1.8088083101059D+00
    62  6.1000000000000D-01 -2.6747286524317D-01  1.7762313020908D+00
    63  6.2000000000000D-01 -3.0122654818923D-01  1.7378168847232D+00
    64  6.3000000000000D-01 -3.3114473239971D-01  1.6938771130018D+00
    65  6.4000000000000D-01 -3.5728347402862D-01  1.6447572304846D+00
    66  6.5000000000000D-01 -3.7972065992613D-01  1.5908325064584D+00
    67  6.6000000000000D-01 -3.9855443094024D-01  1.5325048512128D+00
    68  6.7000000000000D-01 -4.1390150858540D-01  1.4701992415625D+00
    69  6.8000000000000D-01 -4.2589544281518D-01  1.4043599904992D+00
    70  6.9000000000000D-01 -4.3468479877309D-01  1.3354468962445D+00
    71  7.0000000000000D-01 -4.4043130035974D-01  1.2639313070294D+00
    72  7.1000000000000D-01 -4.4330794825488D-01  1.1902921386072D+00
    73  7.2000000000000D-01 -4.4349712966878D-01  1.1150118818265D+00
    74  7.3000000000000D-01 -4.4118873658288D-01  1.0385726375246D+00
    75  7.4000000000000D-01 -4.3657830858217D-01  9.6145221556236D-01
    76  7.5000000000000D-01 -4.2986521558911D-01  8.8412033400317D-01
    77  7.6000000000000D-01 -4.2125089489845D-01  8.0703495325226D-01
    78  7.7000000000000D-01 -4.1093715589151D-01  7.3063877843104D-01
    79  7.8000000000000D-01 -3.9912456469047D-01  6.5535596136808D-01
    80  7.9000000000000D-01 -3.8601091981829D-01  5.8158903138217D-01
    81  8.0000000000000D-01 -3.7178982866477D-01  5.0971608151913D-01
    82  8.1000000000000D-01 -3.5664939324365D-01  4.4008823411878D-01
    83  8.2000000000000D-01 -3.4077101237203D-01  3.7302740655855D-01
    84  8.3000000000000D-01 -3.2432830602808D-01  3.0882439477904D-01
    85  8.4000000000000D-01 -3.0748616625949D-01  2.4773728878032D-01
    86  8.5000000000000D-01 -2.9039993763870D-01  1.8999023072264D-01
    87  8.6000000000000D-01 -2.7321472890448D-01  1.3577252261299D-01
    88  8.7000000000000D-01 -2.5606485610712D-01  8.5238086847922D-02
    89  8.8000000000000D-01 -2.3907341629821D-01  3.8505279158140D-02
    90  8.9000000000000D-01 -2.2235198958733D-01 -4.3429501993194D-03
    91  9.0000000000000D-01 -2.0600046623816D-01 -4.3258554785055D-02
    92  9.1000000000000D-01 -1.9010699440467D-01 -7.8227561161430D-02
    93  9.2000000000000D-01 -1.7474804312279D-01 -1.0926892359009D-01
    94  9.3000000000000D-01 -1.5998857428191D-01 -1.3643308209634D-01
    95  9.4000000000000D-01 -1.4588231650948D-01 -1.5980024470848D-01
    96  9.5000000000000D-01 -1.3247213321593D-01 -1.7947841737525D-01
    97  9.6000000000000D-01 -1.1979047647022D-01 -1.9560120746699D-01
    98  9.7000000000000D-01 -1.0785991790705D-01 -2.0832542886936D-01
    99  9.8000000000000D-01 -9.6693747520369D-02 -2.1782853837849D-01
   100  9.9000000000000D-01 -8.6296630942965D-02 -2.2430593455647D-01
   101  1.0000000000000D+00 -7.6665315689740D-02 -2.2796815116405D-01
   102  1.0100000000000D+00 -6.7789376813888D-02 -2.2903797793048D-01
   103  1.0200000000000D+00 -5.9651992505442D-02 -2.2774754164838D-01
   104  1.0300000000000D+00 -5.2230740342362D-02 -2.2433538041752D-01
   105  1.0400000000000D+00 -4.5498405186867D-02 -2.1904354327722D-01
   106  1.0500000000000D+00 -3.9423790053405D-02 -2.1211474662561D-01
   107  1.0600000000000D+00 -3.3972521755694D-02 -2.0378961740657D-01
   108  1.0700000000000D+00 -2.9107843627993D-02 -1.9430405147475D-01
   109  1.0800000000000D+00 -2.4791388492329D-02 -1.8388671299639D-01
   110  1.0900000000000D+00 -2.0983925842711D-02 -1.7275669817009D-01
   111  1.1000000000000D+00 -1.7646058286608D-02 -1.6112142130788D-01
   112  1.1100000000000D+00 -1.4738961781325D-02 -1.4917455163179D-01
   113  1.1200000000000D+00 -1.2224841566519D-02 -1.3709463842889D-01
   114  1.1300000000000D+00 -1.0066925270035D-02 -1.2504476677554D-01
   115  1.1400000000000D+00 -8.2293626490427D-03 -1.1317250156354D-01
   116  1.1500000000000D+00 -6.6774861536366D-03 -1.0160927414264D-01
   117  1.1600000000000D+00 -5.3781806221806D-03 -9.0469707508884D-02
   118  1.1700000000000D+00 -4.3001336837348D-03 -7.9851327933002D-02
   119  1.1800000000000D+00 -3.4140499774450D-03 -6.9834495071096D-02
   120  1.1900000000000D+00 -2.6928137471851D-03 -6.0482575483899D-02
   121  1.2000000000000D+00 -2.1116013234841D-03 -5.1842349144685D-02
   122  1.2100000000000D+00 -1.6479460213788D-03 -4.3944634914061D-02
   123  1.2200000000000D+00 -1.2817581495435D-03 -3.6805119059938D-02
   124  1.2300000000000D+00 -9.9530343479543D-04 -3.0425367842792D-02
   125  1.2400000000000D+00 -7.7314348606542D-04 -2.4794003546057D-02
   126  1.2500000000000D+00 -6.0204220715502D-04 -1.9888021909769D-02
   127  1.2600000000000D+00 -4.7084260750098D-04 -1.5674226092425D-02
   128  1.2700000000000D+00 -3.7031846916389D-04 -1.2110752205176D-02
   129  1.2800000000000D+00 -2.9300552905828D-04 -9.1486604254671D-03
   130  1.2900000000000D+00 -2.3301704735727D-04 -6.7335645051841D-03
   131  1.3000000000000D+00 -1.8584842386783D-04 -4.8072736130772D-03
   132  1.3100000000000D+00 -1.4817573836743D-04 -3.3094192818130D-03
   133  1.3200000000000D+00 -1.1765277797730D-04 -2.1790418830679D-03
   134  1.3300000000000D+00 -9.2710885408507D-05 -1.3561123618091D-03
   135  1.3400000000000D+00 -7.2366131385481D-05 -7.8296396660521D-04
   136  1.3500000000000D+00 -5.6037396096184D-05 -4.0561384066804D-04
   137  1.3600000000000D+00 -4.3388766586770D-05 -1.7493676570047D-04
   138  1.3700000000000D+00 -3.4170504335212D-05 -4.7722790272862D-05
   139  1.3800000000000D+00 -2.7673553418803D-05  1.1687704866169D-05
   140  1.3900000000000D+00 -2.4357053347550D-05  3.3865567245307D-05
   141  1.4000000000000D+00 -2.5082758536560D-05  4.2466531906444D-05
   142  1.4100000000000D+00 -2.0650283342728D-05  3.5327201319267D-05
   143  1.4200000000000D+00 -6.4724778393093D-06  1.0938944633638D-05
   144  1.4300000000000D+00  2.1502640977630D-06 -3.6655086500370D-06
   145  1.4400000000000D+00  7.6451902474717D-07 -1.2978242140137D-06
   146  1.4500000000000D+00 -5.3499245488387D-07  9.3277560090434D-07
   147  1.4600000000000D+00  6.2116451390202D-09 -1.0639021275943D-08
   148  1.4700000000000D+00  5.9481439278759D-08 -1.0187708470904D-07
   149  1.4800000000000D+00  0.0000000000000D+00  0.0000000000000D+00
   150  1.4900000000000D+00  0.0000000000000D+00  0.0000000000000D+00
   151  1.5000000000000D+00  0.0000000000000D+00  0.0000000000000D+00
   152  1.5100000000000D+00  0.0000000000000D+00  0.0000000000000D+00
   153  1.5200000000000D+00  0.0000000000000D+00  0.0000000000000D+00
   154  1.5300000000000D+00  0.0000000000000D+00  0.0000000000000D+00
   155  1.5400000000000D+00  0.0000000000000D+00  0.0000000000000D+00
   156  1.5500000000000D+00  0.0000000000000D+00  0.0000000000000D+00
   157  1.5600000000000D+00  0.0000000000000D+00  0.0000000000000D+00
   158  1.5700000000000D+00  0.0000000000000D+00  0.0000000000000D+00
   159  1.5800000000000D+00  0.0000000000000D+00  0.0000000000000D+00
   160  1.5900000000000D+00  0.0000000000000D+00  0.0000000000000D+00
   161  1.6000000000000D+00  0.0000000000000D+00  0.0000000000000D+00
   162  1.6100000000000D+00  0.0000000000000D+00  0.0000000000000D+00
   163  1.6200000000000D+00  0.0000000000000D+00  0.0000000000000D+00
   164  1.6300000000000D+00  0.0000000000000D+00  0.0000000000000D+00
   165  1.6400000000000D+00  0.0000000000000D+00  0.0000000000000D+00
   166  1.6500000000000D+00  0.0000000000000D+00  0.0000000000000D+00
   167  1.6600000000000D+00  0.0000000000000D+00  0.0000000000000D+00
   168  1.6700000000000D+00  0.0000000000000D+00  0.0000000000000D+00
   169  1.6800000000000D+00  0.0000000000000D+00  0.0000000000000D+00
   170  1.6900000000000D+00  0.0000000000000D+00  0.0000000000000D+00
   171  1.7000000000000D+00  0.0000000000000D+00  0.0000000000000D+00
   172  1.7100000000000D+00  0.0000000000000D+00  0.0000000000000D+00
   173  1.7200000000000D+00  0.0000000000000D+00  0.0000000000000D+00
   174  1.7300000000000D+00  0.0000000000000D+00  0.0000000000000D+00
   175  1.7400000000000D+00  0.0000000000000D+00  0.0000000000000D+00
   176  1.7500000000000D+00  0.0000000000000D+00  0.0000000000000D+00
   177  1.7600000000000D+00  0.0000000000000D+00  0.0000000000000D+00
   178  1.7700000000000D+00  0.0000000000000D+00  0.0000000000000D+00
   179  1.7800000000000D+00  0.0000000000000D+00  0.0000000000000D+00
   180  1.7900000000000D+00  0.0000000000000D+00  0.0000000000000D+00
   181  1.8000000000000D+00  0.0000000000000D+00  0.0000000000000D+00
   182  1.8100000000000D+00  0.0000000000000D+00  0.0000000000000D+00
   183  1.8200000000000D+00  0.0000000000000D+00  0.0000000000000D+00
   184  1.8300000000000D+00  0.0000000000000D+00  0.0000000000000D+00
   185  1.8400000000000D+00  0.0000000000000D+00  0.0000000000000D+00
   186  1.8500000000000D+00  0.0000000000000D+00  0.0000000000000D+00
   187  1.8600000000000D+00  0.0000000000000D+00  0.0000000000000D+00
   188  1.8700000000000D+00  0.0000000000000D+00  0.0000000000000D+00
   189  1.8800000000000D+00  0.0000000000000D+00  0.0000000000000D+00
   190  1.8900000000000D+00  0.0000000000000D+00  0.0000000000000D+00
   191  1.9000000000000D+00  0.0000000000000D+00  0.0000000000000D+00
   192  1.9100000000000D+00  0.0000000000000D+00  0.0000000000000D+00
   193  1.9200000000000D+00  0.0000000000000D+00  0.0000000000000D+00
   194  1.9300000000000D+00  0.0000000000000D+00  0.0000000000000D+00
   195  1.9400000000000D+00  0.0000000000000D+00  0.0000000000000D+00
   196  1.9500000000000D+00  0.0000000000000D+00  0.0000000000000D+00
   197  1.9600000000000D+00  0.0000000000000D+00  0.0000000000000D+00
   198  1.9700000000000D+00  0.0000000000000D+00  0.0000000000000D+00
   199  1.9800000000000D+00  0.0000000000000D+00  0.0000000000000D+00
   200  1.9900000000000D+00  0.0000000000000D+00  0.0000000000000D+00
   201  2.0000000000000D+00  0.0000000000000D+00  0.0000000000000D+00
   202  2.0100000000000D+00  0.0000000000000D+00  0.0000000000000D+00
   203  2.0200000000000D+00  0.0000000000000D+00  0.0000000000000D+00
   204  2.0300000000000D+00  0.0000000000000D+00  0.0000000000000D+00
   205  2.0400000000000D+00  0.0000000000000D+00  0.0000000000000D+00
   206  2.0500000000000D+00  0.0000000000000D+00  0.0000000000000D+00
   207  2.0600000000000D+00  0.0000000000000D+00  0.0000000000000D+00
   208  2.0700000000000D+00  0.0000000000000D+00  0.0000000000000D+00
   209  2.0800000000000D+00  0.0000000000000D+00  0.0000000000000D+00
   210  2.0900000000000D+00  0.0000000000000D+00  0.0000000000000D+00
   211  2.1000000000000D+00  0.0000000000000D+00  0.0000000000000D+00
   212  2.1100000000000D+00  0.0000000000000D+00  0.0000000000000D+00
   213  2.1200000000000D+00  0.0000000000000D+00  0.0000000000000D+00
   214  2.1300000000000D+00  0.0000000000000D+00  0.0000000000000D+00
   215  2.1400000000000D+00  0.0000000000000D+00  0.0000000000000D+00
   216  2.1500000000000D+00  0.0000000000000D+00  0.0000000000000D+00
   217  2.1600000000000D+00  0.0000000000000D+00  0.0000000000000D+00
   218  2.1700000000000D+00  0.0000000000000D+00  0.0000000000000D+00
   219  2.1800000000000D+00  0.0000000000000D+00  0.0000000000000D+00
   220  2.1900000000000D+00  0.0000000000000D+00  0.0000000000000D+00
   221  2.2000000000000D+00  0.0000000000000D+00  0.0000000000000D+00
   222  2.2100000000000D+00  0.0000000000000D+00  0.0000000000000D+00
   223  2.2200000000000D+00  0.0000000000000D+00  0.0000000000000D+00
   224  2.2300000000000D+00  0.0000000000000D+00  0.0000000000000D+00
   225  2.2400000000000D+00  0.0000000000000D+00  0.0000000000000D+00
   226  2.2500000000000D+00  0.0000000000000D+00  0.0000000000000D+00
   227  2.2600000000000D+00  0.0000000000000D+00  0.0000000000000D+00
   228  2.2700000000000D+00  0.0000000000000D+00  0.0000000000000D+00
   229  2.2800000000000D+00  0.0000000000000D+00  0.0000000000000D+00
   230  2.2900000000000D+00  0.0000000000000D+00  0.0000000000000D+00
   231  2.3000000000000D+00  0.0000000000000D+00  0.0000000000000D+00
   232  2.3100000000000D+00  0.0000000000000D+00  0.0000000000000D+00
   233  2.3200000000000D+00  0.0000000000000D+00  0.0000000000000D+00
   234  2.3300000000000D+00  0.0000000000000D+00  0.0000000000000D+00
   235  2.3400000000000D+00  0.0000000000000D+00  0.0000000000000D+00
   236  2.3500000000000D+00  0.0000000000000D+00  0.0000000000000D+00
   237  2.3600000000000D+00  0.0000000000000D+00  0.0000000000000D+00
   238  2.3700000000000D+00  0.0000000000000D+00  0.0000000000000D+00
   239  2.3800000000000D+00  0.0000000000000D+00  0.0000000000000D+00
   240  2.3900000000000D+00  0.0000000000000D+00  0.0000000000000D+00
   241  2.4000000000000D+00  0.0000000000000D+00  0.0000000000000D+00
   242  2.4100000000000D+00  0.0000000000000D+00  0.0000000000000D+00
   243  2.4200000000000D+00  0.0000000000000D+00  0.0000000000000D+00
   244  2.4300000000000D+00  0.0000000000000D+00  0.0000000000000D+00
   245  2.4400000000000D+00  0.0000000000000D+00  0.0000000000000D+00
   246  2.4500000000000D+00  0.0000000000000D+00  0.0000000000000D+00
   247  2.4600000000000D+00  0.0000000000000D+00  0.0000000000000D+00
   248  2.4700000000000D+00  0.0000000000000D+00  0.0000000000000D+00
   249  2.4800000000000D+00  0.0000000000000D+00  0.0000000000000D+00
   250  2.4900000000000D+00  0.0000000000000D+00  0.0000000000000D+00
   251  2.5000000000000D+00  0.0000000000000D+00  0.0000000000000D+00
   252  2.5100000000000D+00  0.0000000000000D+00  0.0000000000000D+00
   253  2.5200000000000D+00  0.0000000000000D+00  0.0000000000000D+00
   254  2.5300000000000D+00  0.0000000000000D+00  0.0000000000000D+00
   255  2.5400000000000D+00  0.0000000000000D+00  0.0000000000000D+00
   256  2.5500000000000D+00  0.0000000000000D+00  0.0000000000000D+00
   257  2.5600000000000D+00  0.0000000000000D+00  0.0000000000000D+00
   258  2.5700000000000D+00  0.0000000000000D+00  0.0000000000000D+00
   259  2.5800000000000D+00  0.0000000000000D+00  0.0000000000000D+00
   260  2.5900000000000D+00  0.0000000000000D+00  0.0000000000000D+00
   261  2.6000000000000D+00  0.0000000000000D+00  0.0000000000000D+00
   262  2.6100000000000D+00  0.0000000000000D+00  0.0000000000000D+00
   263  2.6200000000000D+00  0.0000000000000D+00  0.0000000000000D+00
   264  2.6300000000000D+00  0.0000000000000D+00  0.0000000000000D+00
   265  2.6400000000000D+00  0.0000000000000D+00  0.0000000000000D+00
   266  2.6500000000000D+00  0.0000000000000D+00  0.0000000000000D+00
   267  2.6600000000000D+00  0.0000000000000D+00  0.0000000000000D+00
   268  2.6700000000000D+00  0.0000000000000D+00  0.0000000000000D+00
   269  2.6800000000000D+00  0.0000000000000D+00  0.0000000000000D+00
   270  2.6900000000000D+00  0.0000000000000D+00  0.0000000000000D+00
   271  2.7000000000000D+00  0.0000000000000D+00  0.0000000000000D+00
   272  2.7100000000000D+00  0.0000000000000D+00  0.0000000000000D+00
   273  2.7200000000000D+00  0.0000000000000D+00  0.0000000000000D+00
   274  2.7300000000000D+00  0.0000000000000D+00  0.0000000000000D+00
   275  2.7400000000000D+00  0.0000000000000D+00  0.0000000000000D+00
   276  2.7500000000000D+00  0.0000000000000D+00  0.0000000000000D+00
   277  2.7600000000000D+00  0.0000000000000D+00  0.0000000000000D+00
   278  2.7700000000000D+00  0.0000000000000D+00  0.0000000000000D+00
   279  2.7800000000000D+00  0.0000000000000D+00  0.0000000000000D+00
   280  2.7900000000000D+00  0.0000000000000D+00  0.0000000000000D+00
   281  2.8000000000000D+00  0.0000000000000D+00  0.0000000000000D+00
   282  2.8100000000000D+00  0.0000000000000D+00  0.0000000000000D+00
   283  2.8200000000000D+00  0.0000000000000D+00  0.0000000000000D+00
   284  2.8300000000000D+00  0.0000000000000D+00  0.0000000000000D+00
   285  2.8400000000000D+00  0.0000000000000D+00  0.0000000000000D+00
   286  2.8500000000000D+00  0.0000000000000D+00  0.0000000000000D+00
   287  2.8600000000000D+00  0.0000000000000D+00  0.0000000000000D+00
   288  2.8700000000000D+00  0.0000000000000D+00  0.0000000000000D+00
   289  2.8800000000000D+00  0.0000000000000D+00  0.0000000000000D+00
   290  2.8900000000000D+00  0.0000000000000D+00  0.0000000000000D+00
   291  2.9000000000000D+00  0.0000000000000D+00  0.0000000000000D+00
   292  2.9100000000000D+00  0.0000000000000D+00  0.0000000000000D+00
   293  2.9200000000000D+00  0.0000000000000D+00  0.0000000000000D+00
   294  2.9300000000000D+00  0.0000000000000D+00  0.0000000000000D+00
   295  2.9400000000000D+00  0.0000000000000D+00  0.0000000000000D+00
   296  2.9500000000000D+00  0.0000000000000D+00  0.0000000000000D+00
   297  2.9600000000000D+00  0.0000000000000D+00  0.0000000000000D+00
   298  2.9700000000000D+00  0.0000000000000D+00  0.0000000000000D+00
   299  2.9800000000000D+00  0.0000000000000D+00  0.0000000000000D+00
   300  2.9900000000000D+00  0.0000000000000D+00  0.0000000000000D+00
   301  3.0000000000000D+00  0.0000000000000D+00  0.0000000000000D+00
   302  3.0100000000000D+00  0.0000000000000D+00  0.0000000000000D+00
   303  3.0200000000000D+00  0.0000000000000D+00  0.0000000000000D+00
   304  3.0300000000000D+00  0.0000000000000D+00  0.0000000000000D+00
   305  3.0400000000000D+00  0.0000000000000D+00  0.0000000000000D+00
   306  3.0500000000000D+00  0.0000000000000D+00  0.0000000000000D+00
   307  3.0600000000000D+00  0.0000000000000D+00  0.0000000000000D+00
   308  3.0700000000000D+00  0.0000000000000D+00  0.0000000000000D+00
   309  3.0800000000000D+00  0.0000000000000D+00  0.0000000000000D+00
   310  3.0900000000000D+00  0.0000000000000D+00  0.0000000000000D+00
   311  3.1000000000000D+00  0.0000000000000D+00  0.0000000000000D+00
   312  3.1100000000000D+00  0.0000000000000D+00  0.0000000000000D+00
   313  3.1200000000000D+00  0.0000000000000D+00  0.0000000000000D+00
   314  3.1300000000000D+00  0.0000000000000D+00  0.0000000000000D+00
   315  3.1400000000000D+00  0.0000000000000D+00  0.0000000000000D+00
   316  3.1500000000000D+00  0.0000000000000D+00  0.0000000000000D+00
   317  3.1600000000000D+00  0.0000000000000D+00  0.0000000000000D+00
   318  3.1700000000000D+00  0.0000000000000D+00  0.0000000000000D+00
   319  3.1800000000000D+00  0.0000000000000D+00  0.0000000000000D+00
   320  3.1900000000000D+00  0.0000000000000D+00  0.0000000000000D+00
   321  3.2000000000000D+00  0.0000000000000D+00  0.0000000000000D+00
   322  3.2100000000000D+00  0.0000000000000D+00  0.0000000000000D+00
   323  3.2200000000000D+00  0.0000000000000D+00  0.0000000000000D+00
   324  3.2300000000000D+00  0.0000000000000D+00  0.0000000000000D+00
   325  3.2400000000000D+00  0.0000000000000D+00  0.0000000000000D+00
   326  3.2500000000000D+00  0.0000000000000D+00  0.0000000000000D+00
   327  3.2600000000000D+00  0.0000000000000D+00  0.0000000000000D+00
   328  3.2700000000000D+00  0.0000000000000D+00  0.0000000000000D+00
   329  3.2800000000000D+00  0.0000000000000D+00  0.0000000000000D+00
   330  3.2900000000000D+00  0.0000000000000D+00  0.0000000000000D+00
   331  3.3000000000000D+00  0.0000000000000D+00  0.0000000000000D+00
   332  3.3100000000000D+00  0.0000000000000D+00  0.0000000000000D+00
   333  3.3200000000000D+00  0.0000000000000D+00  0.0000000000000D+00
   334  3.3300000000000D+00  0.0000000000000D+00  0.0000000000000D+00
   335  3.3400000000000D+00  0.0000000000000D+00  0.0000000000000D+00
   336  3.3500000000000D+00  0.0000000000000D+00  0.0000000000000D+00
   337  3.3600000000000D+00  0.0000000000000D+00  0.0000000000000D+00
   338  3.3700000000000D+00  0.0000000000000D+00  0.0000000000000D+00
   339  3.3800000000000D+00  0.0000000000000D+00  0.0000000000000D+00
   340  3.3900000000000D+00  0.0000000000000D+00  0.0000000000000D+00
   341  3.4000000000000D+00  0.0000000000000D+00  0.0000000000000D+00
   342  3.4100000000000D+00  0.0000000000000D+00  0.0000000000000D+00
   343  3.4200000000000D+00  0.0000000000000D+00  0.0000000000000D+00
   344  3.4300000000000D+00  0.0000000000000D+00  0.0000000000000D+00
   345  3.4400000000000D+00  0.0000000000000D+00  0.0000000000000D+00
   346  3.4500000000000D+00  0.0000000000000D+00  0.0000000000000D+00
   347  3.4600000000000D+00  0.0000000000000D+00  0.0000000000000D+00
   348  3.4700000000000D+00  0.0000000000000D+00  0.0000000000000D+00
   349  3.4800000000000D+00  0.0000000000000D+00  0.0000000000000D+00
   350  3.4900000000000D+00  0.0000000000000D+00  0.0000000000000D+00
   351  3.5000000000000D+00  0.0000000000000D+00  0.0000000000000D+00
   352  3.5100000000000D+00  0.0000000000000D+00  0.0000000000000D+00
   353  3.5200000000000D+00  0.0000000000000D+00  0.0000000000000D+00
   354  3.5300000000000D+00  0.0000000000000D+00  0.0000000000000D+00
   355  3.5400000000000D+00  0.0000000000000D+00  0.0000000000000D+00
   356  3.5500000000000D+00  0.0000000000000D+00  0.0000000000000D+00
   357  3.5600000000000D+00  0.0000000000000D+00  0.0000000000000D+00
   358  3.5700000000000D+00  0.0000000000000D+00  0.0000000000000D+00
   359  3.5800000000000D+00  0.0000000000000D+00  0.0000000000000D+00
   360  3.5900000000000D+00  0.0000000000000D+00  0.0000000000000D+00
   361  3.6000000000000D+00  0.0000000000000D+00  0.0000000000000D+00
   362  3.6100000000000D+00  0.0000000000000D+00  0.0000000000000D+00
   363  3.6200000000000D+00  0.0000000000000D+00  0.0000000000000D+00
   364  3.6300000000000D+00  0.0000000000000D+00  0.0000000000000D+00
   365  3.6400000000000D+00  0.0000000000000D+00  0.0000000000000D+00
   366  3.6500000000000D+00  0.0000000000000D+00  0.0000000000000D+00
   367  3.6600000000000D+00  0.0000000000000D+00  0.0000000000000D+00
   368  3.6700000000000D+00  0.0000000000000D+00  0.0000000000000D+00
   369  3.6800000000000D+00  0.0000000000000D+00  0.0000000000000D+00
   370  3.6900000000000D+00  0.0000000000000D+00  0.0000000000000D+00
   371  3.7000000000000D+00  0.0000000000000D+00  0.0000000000000D+00
   372  3.7100000000000D+00  0.0000000000000D+00  0.0000000000000D+00
   373  3.7200000000000D+00  0.0000000000000D+00  0.0000000000000D+00
   374  3.7300000000000D+00  0.0000000000000D+00  0.0000000000000D+00
   375  3.7400000000000D+00  0.0000000000000D+00  0.0000000000000D+00
   376  3.7500000000000D+00  0.0000000000000D+00  0.0000000000000D+00
   377  3.7600000000000D+00  0.0000000000000D+00  0.0000000000000D+00
   378  3.7700000000000D+00  0.0000000000000D+00  0.0000000000000D+00
   379  3.7800000000000D+00  0.0000000000000D+00  0.0000000000000D+00
   380  3.7900000000000D+00  0.0000000000000D+00  0.0000000000000D+00
   381  3.8000000000000D+00  0.0000000000000D+00  0.0000000000000D+00
   382  3.8100000000000D+00  0.0000000000000D+00  0.0000000000000D+00
   383  3.8200000000000D+00  0.0000000000000D+00  0.0000000000000D+00
   384  3.8300000000000D+00  0.0000000000000D+00  0.0000000000000D+00
   385  3.8400000000000D+00  0.0000000000000D+00  0.0000000000000D+00
   386  3.8500000000000D+00  0.0000000000000D+00  0.0000000000000D+00
   387  3.8600000000000D+00  0.0000000000000D+00  0.0000000000000D+00
   388  3.8700000000000D+00  0.0000000000000D+00  0.0000000000000D+00
   389  3.8800000000000D+00  0.0000000000000D+00  0.0000000000000D+00
   390  3.8900000000000D+00  0.0000000000000D+00  0.0000000000000D+00
   391  3.9000000000000D+00  0.0000000000000D+00  0.0000000000000D+00
   392  3.9100000000000D+00  0.0000000000000D+00  0.0000000000000D+00
   393  3.9200000000000D+00  0.0000000000000D+00  0.0000000000000D+00
   394  3.9300000000000D+00  0.0000000000000D+00  0.0000000000000D+00
   395  3.9400000000000D+00  0.0000000000000D+00  0.0000000000000D+00
   396  3.9500000000000D+00  0.0000000000000D+00  0.0000000000000D+00
   397  3.9600000000000D+00  0.0000000000000D+00  0.0000000000000D+00
   398  3.9700000000000D+00  0.0000000000000D+00  0.0000000000000D+00
   399  3.9800000000000D+00  0.0000000000000D+00  0.0000000000000D+00
   400  3.9900000000000D+00  0.0000000000000D+00  0.0000000000000D+00
   401  4.0000000000000D+00  0.0000000000000D+00  0.0000000000000D+00
   402  4.0100000000000D+00  0.0000000000000D+00  0.0000000000000D+00
   403  4.0200000000000D+00  0.0000000000000D+00  0.0000000000000D+00
   404  4.0300000000000D+00  0.0000000000000D+00  0.0000000000000D+00
   405  4.0400000000000D+00  0.0000000000000D+00  0.0000000000000D+00
   406  4.0500000000000D+00  0.0000000000000D+00  0.0000000000000D+00
   407  4.0600000000000D+00  0.0000000000000D+00  0.0000000000000D+00
   408  4.0700000000000D+00  0.0000000000000D+00  0.0000000000000D+00
   409  4.0800000000000D+00  0.0000000000000D+00  0.0000000000000D+00
   410  4.0900000000000D+00  0.0000000000000D+00  0.0000000000000D+00
   411  4.1000000000000D+00  0.0000000000000D+00  0.0000000000000D+00
   412  4.1100000000000D+00  0.0000000000000D+00  0.0000000000000D+00
   413  4.1200000000000D+00  0.0000000000000D+00  0.0000000000000D+00
   414  4.1300000000000D+00  0.0000000000000D+00  0.0000000000000D+00
   415  4.1400000000000D+00  0.0000000000000D+00  0.0000000000000D+00
   416  4.1500000000000D+00  0.0000000000000D+00  0.0000000000000D+00
   417  4.1600000000000D+00  0.0000000000000D+00  0.0000000000000D+00
   418  4.1700000000000D+00  0.0000000000000D+00  0.0000000000000D+00
   419  4.1800000000000D+00  0.0000000000000D+00  0.0000000000000D+00
   420  4.1900000000000D+00  0.0000000000000D+00  0.0000000000000D+00
   421  4.2000000000000D+00  0.0000000000000D+00  0.0000000000000D+00
   422  4.2100000000000D+00  0.0000000000000D+00  0.0000000000000D+00
   423  4.2200000000000D+00  0.0000000000000D+00  0.0000000000000D+00